# vtk DataFile Version 3.0
vtk output
ASCII
DATASET UNSTRUCTURED_GRID
POINTS 618 float
-8.16335 -106.031 0 1.63765 -104.678 0 10.5882 -108.223 0 
20.2593 -109.725 0 29.2276 -113.564 0 38.0616 -117.368 0 
46.6329 -121.397 0 56.4455 -121.567 0 66.1176 -120.913 0 
75.8977 -121.001 0 85.4683 -119.081 0 94.7503 -116.041 0 
104.27 -113.879 0 113.27 -109.989 0 120.865 -104.043 0 
128.322 -97.7226 0 134.617 -90.5574 0 140.799 -83.1167 0 
145.636 -74.6272 0 150.413 -66.1204 0 154.575 -57.2895 0 
159.531 -48.8076 0 162.257 -39.5958 0 164.614 -29.9638 0 
163.873 -20.3666 0 165.128 -10.6838 0 164.447 -0.754057 0 
168.501 7.63211 0 174.64 15.0538 0 177.694 24.4831 0 
181.636 33.413 0 185.501 42.2328 0 188.978 51.8304 0 
184.221 59.6531 0 177.659 66.7293 0 168.455 70.2727 0 
159.772 74.6576 0 151.598 80.0271 0 142.232 82.0166 0 
132.43 81.9607 0 122.691 82.3029 0 113.048 84.1853 0 
105.234 89.8342 0 98.3518 96.4883 0 89.0075 99.5813 0 
79.6226 101.87 0 69.9174 100.997 0 61.2672 105.437 0 
52.6305 109.904 0 43.4975 113.399 0 33.7633 113.542 0 
24.0595 113.283 0 14.2878 111.978 0 5.16474 114.02 0 
-4.46473 111.87 0 -14.2381 111.661 0 -23.8813 111.899 0 
-32.7051 114.489 0 -42.5531 113.269 0 -50.8883 108.609 0 
-60.627 108.014 0 -70.337 106.99 0 -80.0382 106.629 0 
-89.9897 105.356 0 -97.5921 99.7107 0 -106.776 96.5153 0 
-115.864 93.0256 0 -125.58 94.0334 0 -135.136 91.976 0 
-143.655 87.2441 0 -152.264 82.7529 0 -161.113 79.2168 0 
-166.837 71.3041 0 -175.091 66.0036 0 -181.729 58.9066 0 
-184.318 49.4219 0 -183.42 39.7932 0 -180.853 30.334 0 
-176.427 21.6931 0 -174.139 12.2237 0 -171.353 2.83377 0 
-170.413 -6.8738 0 -169.496 -16.001 0 -164.305 -24.4211 0 
-162.101 -33.931 0 -162.119 -43.6991 0 -161.014 -53.3965 0 
-158.2 -62.7519 0 -154.216 -71.6658 0 -150.615 -80.703 0 
-143.496 -87.4678 0 -136.745 -94.5165 0 -129.026 -100.447 0 
-120.544 -105.296 0 -111.73 -109.472 0 -102.571 -112.921 0 
-92.8188 -113.032 0 -83.8813 -117.01 0 -74.8089 -119.636 0 
-64.9046 -118.444 0 -55.2382 -117.42 0 -45.4809 -116.649 0 
-35.8435 -115.1 0 -26.5478 -112.13 0 -17.4139 -109.146 0 
0.00290453 -98.5556 0 9.58211 -98.6224 0 19.0679 -99.4851 0 
27.8471 -102.904 0 37.1946 -105.168 0 46.9709 -105.149 0 
56.5252 -104.264 0 65.8853 -101.656 0 75.449 -99.8219 0 
84.4604 -96.2185 0 93.6861 -93.1396 0 102.428 -88.99 0 
110.956 -84.649 0 118.968 -79.1452 0 124.488 -71.1792 0 
129.933 -63.0191 0 133.928 -54.9768 0 137.278 -45.8837 0 
141.107 -37.2692 0 143.581 -27.7182 0 144.994 -18.1212 0 
148.286 -9.03267 0 151.569 -0.243368 0 157.228 7.62828 0 
161.387 16.4037 0 165.339 25.0395 0 170.595 33.1412 0 
174.085 42.2538 0 174.217 51.9287 0 167.073 58.3025 0 
160.516 65.3956 0 152.694 71.0842 0 143.085 71.9684 0 
133.445 73.0551 0 123.784 73.7108 0 114.737 77.3134 0 
105.608 80.6672 0 97.33 85.6184 0 87.9344 88.1633 0 
78.9684 91.9112 0 69.8928 95.3807 0 60.8144 98.8256 0 
51.5932 101.837 0 42.3864 105.011 0 32.8743 106.168 0 
23.0979 106.09 0 13.759 103.532 0 4.77169 99.7006 0 
-4.81818 99.3619 0 -14.2867 101.547 0 -23.6287 104.227 0 
-33.0484 106.31 0 -42.5252 104.176 0 -51.7322 101.052 0 
-61.3359 99.671 0 -70.4236 96.1941 0 -79.2362 92.1508 0 
-88.8319 90.1392 0 -97.2191 85.4137 0 -106.755 83.9904 0 
-116.483 84.0361 0 -126.071 82.5574 0 -135.619 80.4795 0 
-143.978 75.8986 0 -151.426 69.6491 0 -158.523 63.0121 0 
-166.488 57.4775 0 -171.645 49.309 0 -171.592 39.5069 0 
-170.44 29.8569 0 -166.45 21.0574 0 -162.607 12.1118 0 
-156.09 4.99964 0 -149.871 -2.54693 0 -148.006 -11.9207 0 
-145.88 -21.4007 0 -145.087 -31.0476 0 -143.172 -39.6621 0 
-140.301 -50.6695 0 -136.472 -58.8055 0 -130.693 -66.9949 0 
-124.718 -74.6509 0 -118.706 -82.2804 0 -110.659 -87.7346 0 
-102.891 -93.6135 0 -93.7179 -96.6746 0 -84.9251 -100.646 0 
-75.3761 -102.561 0 -66.1624 -105.826 0 -56.5481 -105.063 0 
-46.8583 -105.255 0 -37.1598 -107.014 0 -27.9889 -104.546 0 
-19.1307 -100.515 0 -9.71678 -99.0229 0 0.101515 -88.8375 0 
8.68577 -89.7913 0 17.27 -90.2682 0 25.3774 -91.6989 0 
34.4385 -92.1758 0 42.069 -92.6527 0 50.6532 -93.1296 0 
58.7606 -93.6065 0 67.3448 -92.1758 0 76.406 -89.7913 0 
85.4671 -86.453 0 93.0976 -83.1147 0 98.3649 -78.841 0 
105.181 -74.1218 0 112.072 -69.2013 0 117.159 -63.1668 0 
121.964 -56.4125 0 124.835 -48.7552 0 128.664 -41.0978 0 
131.535 -33.4405 0 134.407 -25.3045 0 136.8 -18.1258 0 
138.714 -9.03267 0 138.714 -0.418167 0 138.235 7.71778 0 
135.764 15.8848 0 134.41 24.075 0 133.074 32.2894 0 
131.855 40.2239 0 128.043 47.7142 0 123.344 54.4201 0 
118.074 60.9156 0 111.46 65.9787 0 104.104 69.8482 0 
96.1562 72.4166 0 88.664 75.9813 0 81.0457 79.1148 0 
73.03 81.4131 0 65.1523 84.0837 0 56.8677 85.1433 0 
48.5567 84.6716 0 40.2662 84.112 0 31.9627 85.055 0 
24.2287 81.0176 0 17.2805 77.5753 0 12.4151 71.71 0 
7.76132 69.92 0 0.243608 69.2041 0 -7.27412 69.5621 0 
-15.8658 69.2041 0 -22.6675 70.278 0 -26.9634 73.4999 0 
-34.1231 76.7218 0 -43.2966 80.9399 0 -51.404 82.3706 0 
-58.5575 84.2783 0 -67.1418 83.3245 0 -75.2492 84.2783 0 
-83.6069 83.2808 0 -91.3286 80.2813 0 -99.1743 77.5079 0 
-106.569 73.6091 0 -112.821 68.1883 0 -118.723 62.3052 0 
-123.782 55.7106 0 -128.544 48.8436 0 -131.323 41.0401 0 
-133.233 32.8789 0 -135.731 24.9472 0 -138.221 17.0083 0 
-138.997 8.70612 0 -138.981 0.371897 0 -139.84 -7.90726 0 
-139.748 -16.2467 0 -137.676 -24.3265 0 -136.443 -32.5432 0 
-134.507 -40.5817 0 -131.171 -48.2451 0 -127.703 -55.8212 0 
-122.601 -62.3866 0 -116.757 -68.3354 0 -111.107 -74.5987 0 
-104.885 -80.3417 0 -96.7495 -83.6918 0 -89.0922 -87.0419 0 
-80.9562 -89.4348 0 -71.8631 -91.3492 0 -64.247 -91.5412 0 
-56.0907 -93.1022 0 -47.7836 -93.8427 0 -39.7586 -96.049 0 
-31.5208 -95.5566 0 -24.1545 -91.4602 0 -16.6977 -87.9373 0 
-8.13989 -88.0321 0 105.317 -67.6163 0 110.202 -64.4113 0 
113.828 -59.284 0 116.699 -53.541 0 118.316 -47.7755 0 
119.738 -41.7295 0 121.006 -35.8334 0 123.399 -30.0904 0 
125.314 -24.826 0 128.07 -19.0888 0 130.219 -13.1973 0 
131.001 -7.01374 0 131.057 -0.418167 0 129.621 4.36766 0 
127.706 10.5893 0 126.897 16.9754 0 125.326 22.4271 0 
122.353 27.9358 0 120.58 33.9106 0 117.242 39.2103 0 
113.708 44.3265 0 109.253 48.7014 0 106.277 54.1203 0 
104.279 60.3765 0 99.3969 63.3848 0 93.4217 65.7169 0 
87.8947 68.3137 0 81.6551 68.9445 0 75.5172 70.074 0 
69.6789 72.5618 0 63.7683 73.9996 0 57.6139 72.6261 0 
51.6505 70.8811 0 45.7298 68.9333 0 39.5677 67.9382 0 
33.4463 66.5724 0 28.058 63.6992 0 22.6843 60.2248 0 
19.1313 55.5641 0 19.0482 49.1196 0 18.8694 42.9179 0 
20.4474 36.9431 0 24.1694 31.9123 0 28.1988 27.2472 0 
31.8541 22.0687 0 38.1267 22.0155 0 44.4328 22.0753 0 
50.6545 19.6824 0 56.3975 17.768 0 62.1405 14.4179 0 
67.4049 11.5464 0 72.1907 7.71778 0 76.498 2.93193 0 
80.3267 -2.33249 0 83.6289 -7.76599 0 87.4335 -12.7643 0 
89.4198 -17.6472 0 91.8127 -24.3474 0 93.2485 -30.569 0 
94.0827 -36.5812 0 95.1628 -43.0122 0 94.998 -48.9866 0 
95.1628 -55.4554 0 93.2485 -61.6769 0 89.8984 -67.42 0 
86.5483 -72.6844 0 83.6806 -77.693 0 89.5119 -76.6151 0 
95.3523 -74.9958 0 99.9607 -70.8071 0 -105.185 -70.2067 0 
-99.3124 -73.6878 0 -92.5911 -75.8509 0 -86.327 -78.9538 0 
-79.8912 -81.4534 0 -73.0018 -82.7604 0 -66.2151 -84.1347 0 
-59.204 -84.0011 0 -52.2395 -83.9372 0 -45.3155 -83.0272 0 
-38.3373 -82.9878 0 -31.3598 -83.0209 0 -24.4973 -81.8383 0 
-17.4163 -81.215 0 -19.8755 -76.2782 0 -26.0468 -72.9423 0 
-31.1835 -68.8557 0 -34.8647 -62.4541 0 -37.7802 -55.9667 0 
-38.0814 -49.0397 0 -39.1133 -42.1692 0 -39.0521 -35.1461 0 
-37.3624 -28.5764 0 -34.9897 -22.0594 0 -33.3023 -15.4845 0 
-29.63 -9.53766 0 -23.9104 -5.55453 0 -17.7941 -2.31433 0 
-14.3937 3.74711 0 -13.0222 10.5696 0 -15.1081 17.2639 0 
-18.8579 23.1894 0 -20.0254 29.7032 0 -21.4565 36.4689 0 
-21.8778 43.3914 0 -24.7154 49.5042 0 -29.0536 55.0707 0 
-33.4045 60.5304 0 -37.8755 65.8881 0 -44.1047 69.0131 0 
-51.0601 69.2682 0 -57.6278 71.7644 0 -63.8157 74.9326 0 
-70.4274 74.7196 0 -77.0644 75.7149 0 -83.5339 73.9805 0 
-90.0515 72.0798 0 -96.6687 69.7436 0 -102.621 66.3735 0 
-107.583 61.4023 0 -112.556 56.5113 0 -116.37 50.646 0 
-118.328 43.9374 0 -121.313 37.6255 0 -122.739 30.887 0 
-124.014 24.0254 0 -126.594 17.5046 0 -128.778 10.8787 0 
-129.979 3.98193 0 -129.658 -2.99555 0 -129.011 -9.92079 0 
-129.972 -16.8468 0 -130.945 -23.7774 0 -128.815 -30.569 0 
-126.422 -37.2692 0 -124.029 -43.0122 0 -121.157 -49.2338 0 
-117.807 -54.9768 0 -114.936 -62.1555 0 -110.908 -66.3654 0 
-158.318 -11.567 0 -158.318 30.433 0 -158.318 44.433 0 
-158.318 72.433 0 -144.318 -67.567 0 -144.318 30.433 0 
-144.318 44.433 0 -144.318 58.433 0 -130.318 -81.567 0 
-130.318 58.433 0 -130.318 72.433 0 -116.318 -95.567 0 
-116.318 -39.567 0 -116.318 -25.567 0 -116.318 -11.567 0 
-116.318 2.433 0 -116.318 16.433 0 -102.318 -53.567 0 
-102.318 -39.567 0 -102.318 -25.567 0 -102.318 -11.567 0 
-102.318 2.433 0 -102.318 16.433 0 -102.318 30.433 0 
-102.318 44.433 0 -88.3179 -67.567 0 -88.3179 -53.567 0 
-88.3179 -39.567 0 -88.3179 -25.567 0 -88.3179 -11.567 0 
-88.3179 2.433 0 -88.3179 16.433 0 -88.3179 30.433 0 
-88.3179 44.433 0 -88.3179 58.433 0 -74.3179 -109.567 0 
-74.3179 -67.567 0 -74.3179 -53.567 0 -74.3179 -39.567 0 
-74.3179 -25.567 0 -74.3179 -11.567 0 -74.3179 2.433 0 
-74.3179 16.433 0 -74.3179 30.433 0 -74.3179 44.433 0 
-74.3179 58.433 0 -60.3179 -67.567 0 -60.3179 -53.567 0 
-60.3179 -39.567 0 -60.3179 -25.567 0 -60.3179 -11.567 0 
-60.3179 2.433 0 -60.3179 16.433 0 -60.3179 30.433 0 
-60.3179 44.433 0 -60.3179 58.433 0 -46.3179 -67.567 0 
-46.3179 -53.567 0 -46.3179 -39.567 0 -46.3179 -25.567 0 
-46.3179 -11.567 0 -46.3179 2.433 0 -46.3179 16.433 0 
-46.3179 30.433 0 -46.3179 44.433 0 -46.3179 58.433 0 
-32.3179 2.433 0 -32.3179 16.433 0 -32.3179 30.433 0 
-32.3179 44.433 0 -32.3179 86.433 0 -18.3179 58.433 0 
-18.3179 86.433 0 -4.3179 16.433 0 -4.3179 30.433 0 
-4.3179 44.433 0 -4.3179 58.433 0 -4.3179 86.433 0 
9.6821 18.433 0 9.6821 30.433 0 9.6821 44.433 0 
9.6821 58.433 0 9.6821 86.433 0 22.1 19.6 0 
23.6821 72.433 0 37.6821 30.433 0 37.6821 44.433 0 
37.6821 58.433 0 51.6821 30.433 0 51.6821 44.433 0 
51.6821 58.433 0 65.6821 -109.567 0 65.6821 30.433 0 
65.6821 44.433 0 65.6821 58.433 0 79.6821 -109.567 0 
79.6821 16.433 0 79.6821 30.433 0 79.6821 44.433 0 
79.6821 58.433 0 93.6821 2.433 0 93.6821 16.433 0 
93.6821 30.433 0 93.6821 44.433 0 93.6821 58.433 0 
107.682 -95.567 0 107.682 -53.567 0 107.682 -39.567 0 
107.682 -25.567 0 107.682 -11.567 0 107.682 2.433 0 
107.682 16.433 0 107.682 30.433 0 121.682 -11.567 0 
121.682 2.433 0 135.682 -67.567 0 135.682 58.433 0 
149.682 -39.567 0 149.682 16.433 0 149.682 30.433 0 
149.682 44.433 0 149.682 58.433 0 163.682 44.433 0 
45.9928 -81.817 0 51.835 -81.0362 0 57.7698 -81.1393 0 
63.45 -80.11 0 69.289 -78.4923 0 74.1881 -75.711 0 
77.8204 -71.005 0 82.6902 -67.5704 0 87.1504 -63.7769 0 
88.9714 -58.1544 0 89.8826 -52.3141 0 90.0703 -46.4378 0 
89.5816 -40.5715 0 88.8318 -34.7027 0 87.1292 -29.1093 0 
84.6012 -23.7938 0 83.3338 -18.0158 0 80.6112 -12.8209 0 
76.9576 -8.18023 0 73.2736 -3.57883 0 69.5412 0.948084 0 
65.7339 5.53321 0 61.0461 8.89789 0 55.5868 11.2655 0 
50.1896 13.382 0 44.3793 14.5378 0 38.7741 16.0626 0 
32.9722 14.6322 0 27.3867 12.8702 0 21.541 12.1928 0 
15.7366 10.8946 0 10.8775 7.59779 0 5.55424 5.13984 0 
0.560358 2.05965 0 -2.46243 -3.03718 0 -5.63842 -7.88749 0 
-10.0354 -11.8914 0 -14.0371 -16.1944 0 -17.6211 -20.8857 0 
-21.4076 -25.3627 0 -26.041 -29.0343 0 -30.1919 -33.2268 0 
-33.0802 -38.3353 0 -32.9739 -44.2515 0 -32.4062 -50.1462 0 
-31.3682 -55.8856 0 -29.3413 -61.5012 0 -25.7829 -66.1639 0 
-20.7345 -69.2074 0 -16.5736 -73.3774 0 -11.6491 -76.6033 0 
-6.49692 -79.7855 0 -0.930867 -81.0806 0 4.96901 -81.3212 0 
10.7629 -82.2393 0 16.6891 -81.9574 0 22.5977 -81.8517 0 
28.4178 -82.4237 0 34.3321 -83.0915 0 40.0942 -82.861 0 

CELL_TYPES 0

POINT_DATA 618
SCALARS scalars double
LOOKUP_TABLE default
-11.0898 -10.6676 -10.1455 -9.81422 -9.84665 -10.1459 -10.5609 -11.0805 -11.7002 
-12.349 -12.8937 -13.3898 -13.7567 -14.0018 -14.1096 -14.0981 -13.9669 -13.6734 
-13.2581 -12.6102 -11.792 -10.8848 -10.0128 -8.97081 -7.83272 -6.52237 -5.10711 
-3.83899 -3.06363 -2.46953 -2.01121 -1.71157 -1.54032 -1.41345 -1.23305 -0.992891 
-0.643733 -0.298709 0.0464833 0.503686 1.10292 1.79669 2.32499 2.58725 2.7629 
2.85483 2.85466 2.67298 2.41681 2.1332 1.79559 1.35723 0.785825 0.231244 
-0.382624 -1.10391 -1.80676 -2.325 -2.78277 -3.32275 -3.93412 -4.44452 -4.86027 
-5.2034 -5.52827 -5.90391 -6.25672 -6.50656 -6.68254 -6.84429 -7.0009 -7.11861 
-7.22905 -7.33301 -7.4055 -7.46923 -7.54556 -7.6435 -7.77786 -7.95443 -8.15005 
-8.34885 -8.51145 -8.70689 -8.93105 -9.11917 -9.27399 -9.41146 -9.53878 -9.64391 
-9.75545 -9.86457 -9.97638 -10.0856 -10.1985 -10.3141 -10.4403 -10.5728 -10.6743 
-10.7821 -10.9021 -11.0149 -11.1081 -11.1782 -11.1962 -10.8253 -10.2477 -9.74128 
-9.63184 -9.81541 -10.2282 -10.8704 -11.732 -12.7015 -13.5456 -14.1007 -14.453 
-14.4786 -14.3309 -14.0474 -13.5079 -12.7672 -11.7979 -10.6294 -9.25516 -7.86922 
-6.48789 -5.21897 -4.20542 -3.26659 -2.59099 -2.13439 -1.74014 -1.45895 -1.18448 
-0.847376 -0.477451 -0.0894265 0.384865 0.952937 1.5642 2.12662 2.51695 2.78055 
2.9018 2.89742 2.74911 2.50018 2.16888 1.78547 1.30718 0.783803 0.233863 
-0.432855 -1.11684 -1.76284 -2.34532 -2.9067 -3.48543 -4.04246 -4.54124 -4.97798 
-5.37181 -5.74451 -6.07351 -6.34733 -6.58261 -6.77795 -6.94587 -7.10069 -7.23454 
-7.34754 -7.44882 -7.55382 -7.67975 -7.82717 -8.00121 -8.15696 -8.33345 -8.54284 
-8.75582 -8.96066 -9.13846 -9.34484 -9.49655 -9.65887 -9.8062 -9.94801 -10.0905 
-10.2295 -10.3692 -10.5083 -10.647 -10.776 -10.9056 -11.0267 -11.121 -11.1999 
-11.246 -11.1687 -11.1502 -10.3629 -9.54535 -9.12102 -8.97887 -9.14564 -9.73879 
-10.7231 -12.0389 -13.4006 -14.393 -14.8679 -15.1631 -15.1997 -14.9446 -14.5907 
-13.9813 -13.2412 -12.1122 -10.8535 -9.39621 -8.10531 -6.55456 -5.17294 -3.99493 
-2.85045 -1.92124 -1.14723 -0.56635 0.0319142 0.597804 1.10488 1.63004 2.12959 
2.57074 2.87367 3.06542 3.15947 3.11851 3.00746 2.83915 2.56964 2.14634 
1.81076 1.43712 1.18889 0.813837 0.107317 -0.615255 -1.42991 -2.00825 -2.30205 
-2.78316 -3.30865 -3.77578 -4.13886 -4.59501 -4.94413 -5.30121 -5.64097 -5.95187 
-6.24044 -6.49557 -6.72896 -6.94508 -7.15049 -7.34348 -7.53701 -7.73232 -7.91847 
-8.10766 -8.30275 -8.49255 -8.68236 -8.87299 -9.05269 -9.22316 -9.38693 -9.54041 
-9.69002 -9.83462 -9.97543 -10.1145 -10.2597 -10.3978 -10.5382 -10.691 -10.8152 
-10.9416 -11.0632 -11.1592 -11.2578 -11.376 -11.4968 -11.4865 -15.5859 -15.2485 
-14.9857 -14.5485 -14.0534 -13.363 -12.4263 -11.1752 -9.99411 -8.61946 -7.39243 
-6.21569 -4.97862 -4.12499 -3.10282 -2.15985 -1.4055 -0.617125 -0.0259095 0.563381 
1.07672 1.60508 1.92619 2.09985 2.44615 2.80053 3.05965 3.34351 3.51401 
3.5358 3.51864 3.58002 3.59984 3.54526 3.34423 3.0734 2.85592 2.59757 
2.54462 2.97637 3.46483 4.2816 5.59259 7.09754 8.96035 10.123 10.67 
11.7478 12.6149 13.9023 14.3597 14.3893 12.6769 8.6593 1.82337 -5.293 
-10.4909 -16.0988 -19.6048 -20.9251 -20.3429 -19.575 -18.2918 -17.551 -16.8928 
-16.1947 -15.4826 -15.6032 -15.6255 -15.7933 -10.0202 -10.1494 -10.2782 -10.4046 
-10.5324 -10.6605 -10.7887 -10.9177 -11.0453 -11.1751 -11.2973 -11.4187 -11.5627 
-11.7106 -11.8006 -11.6762 -11.5726 -11.5046 -11.5267 -11.7923 -12.2815 -12.9204 
-13.4219 -13.5059 -12.8757 -12.2413 -11.9581 -11.1553 -8.34037 -5.95463 -4.7204 
-4.38403 -3.74908 -3.34165 -2.91 -2.91128 -3.05956 -3.19713 -3.35334 -3.68415 
-4.11171 -4.40912 -4.63368 -4.95045 -5.20709 -5.50223 -5.77801 -6.03939 -6.28056 
-6.51934 -6.73777 -6.94214 -7.13261 -7.32942 -7.51849 -7.71167 -7.88975 -8.06479 
-8.24249 -8.42251 -8.6022 -8.76188 -8.91342 -9.08012 -9.2407 -9.37388 -9.51281 
-9.64803 -9.78469 -9.8926 -7.98782 -8.18921 -9.51085 -11.5255 -13.7473 -15.65 
-16.4437 -17.0319 -17.6684 -18.5455 -19.9029 -22.029 -24.3527 -25.69 -24.5251 
-19.8181 -11.8027 -1.37893 10.3285 20.65 21.5902 19.8772 17.245 14.8994 
13.4772 12.8154 12.3489 11.3856 9.8 8.32972 6.36564 3.85898 0.692502 
-3.4058 -8.67202 -14.1519 -17.7941 -18.2783 -17.8861 -17.5335 -17.1 -15.4074 
-13.5711 -12.1821 -11.4907 -11.4145 -11.5807 -11.7663 -11.9262 -12.0013 -12.0214 
-12.0618 -11.9596 -11.2187 -10.0836 -9.07794 -8.41975 -8.08883 -8.07211 -7.76415 
-8.48452 -7.66906 -7.45848 -7.1455 -9.5528 -7.64298 -7.38326 -7.16451 -9.81716 
-6.9944 -6.78697 -10.0747 -9.41126 -9.1069 -8.74279 -8.33284 -7.90243 -9.87413 
-9.63729 -9.31198 -8.8933 -8.40057 -7.87294 -7.35494 -6.88221 -10.2973 -10.1656 
-9.95181 -9.61044 -9.11784 -8.50322 -7.83382 -7.18157 -6.5981 -6.11113 -10.6712 
-10.605 -10.539 -10.394 -10.0601 -9.46441 -8.66064 -7.77755 -6.93944 -6.21749 
-5.6357 -10.9422 -10.9915 -11.0248 -10.7717 -10.019 -8.89738 -7.67629 -6.58114 
-5.69671 -5.02462 -11.2686 -11.4601 -11.9422 -11.9829 -10.9426 -9.23356 -7.44911 
-6.01211 -4.9636 -4.23671 -9.64517 -6.87446 -5.0546 -3.90887 -2.49462 -1.90049 
-1.47788 -2.04661 -0.866786 -0.445409 -0.340155 -0.376676 3.01965 2.42686 1.85095 
1.36059 0.719088 6.91434 2.11724 7.94955 5.54053 4.01901 8.90604 6.28094 
4.60481 -11.6775 8.47085 6.07236 4.57113 -12.7564 8.85838 6.49489 4.96653 
3.95931 1.4939 3.56069 3.68383 3.33955 2.94545 -14.245 -16.1077 -15.761 
-12.573 -7.13588 -2.33274 0.20665 1.34018 -7.13925 -3.89563 -13.3728 -0.02929 
-10.4487 -3.21018 -2.03007 -1.21078 -0.678456 -1.54325 
